<?xml version="1.0" encoding="UTF-8"?>

<!-- generated on 2023-02-16 13:46:28 by Eclipse SUMO GUI Version 1.15.0
<configuration xmlns:xsi="http://www.w3.org/2001/XMLSchema-instance" xsi:noNamespaceSchemaLocation="http://sumo.dlr.de/xsd/sumoConfiguration.xsd">

    <input>
        <net-file value="data/paradas.net.xml"/>
        <route-files value="data/paradasbusstops.rou.xml"/>
        <additional-files value="data/busstops.add.xml"/>
    </input>

    <output>
        <tripinfo-output value="tripinfo.xml"/>
    </output>

    <processing>
        <ignore-route-errors value="true"/>
    </processing>

    <traci_server>
        <remote-port value="61354"/>
    </traci_server>

</configuration>
-->

<tripinfos xmlns:xsi="http://www.w3.org/2001/XMLSchema-instance" xsi:noNamespaceSchemaLocation="http://sumo.dlr.de/xsd/tripinfo_file.xsd">
    <tripinfo id="f_0.0" depart="0.00" departLane="-E3_1" departPos="5.10" departSpeed="0.00" departDelay="0.00" arrival="384.00" arrivalLane="-E00_1" arrivalPos="85.60" arrivalSpeed="14.37" duration="384.00" routeLength="2322.21" waitingTime="178.00" waitingCount="5" stopTime="0.00" timeLoss="223.38" rerouteNo="0" devices="tripinfo_f_0.0" vType="DEFAULT_VEHTYPE" speedFactor="1.06" vaporized=""/>
</tripinfos>
